# LAMMPS data file written by OVITO
2000 atoms
1 atom types
-11.3602076 17.0403099 xlo xhi
-11.3602076 17.0403099 ylo yhi
-11.3602076 17.0403099 zlo zhi

Atoms # atomic

1 1 -11.3602076 -11.3602076 -11.3602076
2 1 -9.9401818 -9.9401818 -9.9401818
3 1 -11.3602076 -11.3602076 -8.5201559
4 1 -9.9401818 -9.9401818 -7.1001301
5 1 -11.3602076 -11.3602076 -5.6801038
6 1 -9.9401818 -9.9401818 -4.260078
7 1 -11.3602076 -11.3602076 -2.840052
8 1 -9.9401818 -9.9401818 -1.420026
9 1 -11.3602076 -11.3602076 0.0
10 1 -9.9401818 -9.9401818 1.420026
11 1 -11.3602076 -11.3602076 2.840052
12 1 -9.9401818 -9.9401818 4.260078
13 1 -11.3602076 -11.3602076 5.6801038
14 1 -9.9401818 -9.9401818 7.1001296
15 1 -11.3602076 -11.3602076 8.5201559
16 1 -9.9401818 -9.9401818 9.9401818
17 1 -11.3602076 -11.3602076 11.3602076
18 1 -9.9401818 -9.9401818 12.7802334
19 1 -11.3602076 -11.3602076 14.2002592
20 1 -9.9401818 -9.9401818 15.6202851
21 1 -11.3602076 -8.5201559 -11.3602076
22 1 -9.9401818 -7.1001301 -9.9401818
23 1 -11.3602076 -8.5201559 -8.5201559
24 1 -9.9401818 -7.1001301 -7.1001301
25 1 -11.3602076 -8.5201559 -5.6801038
26 1 -9.9401818 -7.1001301 -4.260078
27 1 -11.3602076 -8.5201559 -2.840052
28 1 -9.9401818 -7.1001301 -1.420026
29 1 -11.3602076 -8.5201559 0.0
30 1 -9.9401818 -7.1001301 1.420026
31 1 -11.3602076 -8.5201559 2.840052
32 1 -9.9401818 -7.1001301 4.260078
33 1 -11.3602076 -8.5201559 5.6801038
34 1 -9.9401818 -7.1001301 7.1001296
35 1 -11.3602076 -8.5201559 8.5201559
36 1 -9.9401818 -7.1001301 9.9401818
37 1 -11.3602076 -8.5201559 11.3602076
38 1 -9.9401818 -7.1001301 12.7802334
39 1 -11.3602076 -8.5201559 14.2002592
40 1 -9.9401818 -7.1001301 15.6202851
41 1 -11.3602076 -5.6801038 -11.3602076
42 1 -9.9401818 -4.260078 -9.9401818
43 1 -11.3602076 -5.6801038 -8.5201559
44 1 -9.9401818 -4.260078 -7.1001301
45 1 -11.3602076 -5.6801038 -5.6801038
46 1 -9.9401818 -4.260078 -4.260078
47 1 -11.3602076 -5.6801038 -2.840052
48 1 -9.9401818 -4.260078 -1.420026
49 1 -11.3602076 -5.6801038 0.0
50 1 -9.9401818 -4.260078 1.420026
51 1 -11.3602076 -5.6801038 2.840052
52 1 -9.9401818 -4.260078 4.260078
53 1 -11.3602076 -5.6801038 5.6801038
54 1 -9.9401818 -4.260078 7.1001296
55 1 -11.3602076 -5.6801038 8.5201559
56 1 -9.9401818 -4.260078 9.9401818
57 1 -11.3602076 -5.6801038 11.3602076
58 1 -9.9401818 -4.260078 12.7802334
59 1 -11.3602076 -5.6801038 14.2002592
60 1 -9.9401818 -4.260078 15.6202851
61 1 -11.3602076 -2.840052 -11.3602076
62 1 -9.9401818 -1.420026 -9.9401818
63 1 -11.3602076 -2.840052 -8.5201559
64 1 -9.9401818 -1.420026 -7.1001301
65 1 -11.3602076 -2.840052 -5.6801038
66 1 -9.9401818 -1.420026 -4.260078
67 1 -11.3602076 -2.840052 -2.840052
68 1 -9.9401818 -1.420026 -1.420026
69 1 -11.3602076 -2.840052 0.0
70 1 -9.9401818 -1.420026 1.420026
71 1 -11.3602076 -2.840052 2.840052
72 1 -9.9401818 -1.420026 4.260078
73 1 -11.3602076 -2.840052 5.6801038
74 1 -9.9401818 -1.420026 7.1001296
75 1 -11.3602076 -2.840052 8.5201559
76 1 -9.9401818 -1.420026 9.9401818
77 1 -11.3602076 -2.840052 11.3602076
78 1 -9.9401818 -1.420026 12.7802334
79 1 -11.3602076 -2.840052 14.2002592
80 1 -9.9401818 -1.420026 15.6202851
81 1 -11.3602076 0.0 -11.3602076
82 1 -9.9401818 1.420026 -9.9401818
83 1 -11.3602076 0.0 -8.5201559
84 1 -9.9401818 1.420026 -7.1001301
85 1 -11.3602076 0.0 -5.6801038
86 1 -9.9401818 1.420026 -4.260078
87 1 -11.3602076 0.0 -2.840052
88 1 -9.9401818 1.420026 -1.420026
89 1 -11.3602076 0.0 0.0
90 1 -9.9401818 1.420026 1.420026
91 1 -11.3602076 0.0 2.840052
92 1 -9.9401818 1.420026 4.260078
93 1 -11.3602076 0.0 5.6801038
94 1 -9.9401818 1.420026 7.1001296
95 1 -11.3602076 0.0 8.5201559
96 1 -9.9401818 1.420026 9.9401818
97 1 -11.3602076 0.0 11.3602076
98 1 -9.9401818 1.420026 12.7802334
99 1 -11.3602076 0.0 14.2002592
100 1 -9.9401818 1.420026 15.6202851
101 1 -11.3602076 2.840052 -11.3602076
102 1 -9.9401818 4.260078 -9.9401818
103 1 -11.3602076 2.840052 -8.5201559
104 1 -9.9401818 4.260078 -7.1001301
105 1 -11.3602076 2.840052 -5.6801038
106 1 -9.9401818 4.260078 -4.260078
107 1 -11.3602076 2.840052 -2.840052
108 1 -9.9401818 4.260078 -1.420026
109 1 -11.3602076 2.840052 0.0
110 1 -9.9401818 4.260078 1.420026
111 1 -11.3602076 2.840052 2.840052
112 1 -9.9401818 4.260078 4.260078
113 1 -11.3602076 2.840052 5.6801038
114 1 -9.9401818 4.260078 7.1001296
115 1 -11.3602076 2.840052 8.5201559
116 1 -9.9401818 4.260078 9.9401818
117 1 -11.3602076 2.840052 11.3602076
118 1 -9.9401818 4.260078 12.7802334
119 1 -11.3602076 2.840052 14.2002592
120 1 -9.9401818 4.260078 15.6202851
121 1 -11.3602076 5.6801038 -11.3602076
122 1 -9.9401818 7.1001296 -9.9401818
123 1 -11.3602076 5.6801038 -8.5201559
124 1 -9.9401818 7.1001296 -7.1001301
125 1 -11.3602076 5.6801038 -5.6801038
126 1 -9.9401818 7.1001296 -4.260078
127 1 -11.3602076 5.6801038 -2.840052
128 1 -9.9401818 7.1001296 -1.420026
129 1 -11.3602076 5.6801038 0.0
130 1 -9.9401818 7.1001296 1.420026
131 1 -11.3602076 5.6801038 2.840052
132 1 -9.9401818 7.1001296 4.260078
133 1 -11.3602076 5.6801038 5.6801038
134 1 -9.9401818 7.1001296 7.1001296
135 1 -11.3602076 5.6801038 8.5201559
136 1 -9.9401818 7.1001296 9.9401818
137 1 -11.3602076 5.6801038 11.3602076
138 1 -9.9401818 7.1001296 12.7802334
139 1 -11.3602076 5.6801038 14.2002592
140 1 -9.9401818 7.1001296 15.6202851
141 1 -11.3602076 8.5201559 -11.3602076
142 1 -9.9401818 9.9401818 -9.9401818
143 1 -11.3602076 8.5201559 -8.5201559
144 1 -9.9401818 9.9401818 -7.1001301
145 1 -11.3602076 8.5201559 -5.6801038
146 1 -9.9401818 9.9401818 -4.260078
147 1 -11.3602076 8.5201559 -2.840052
148 1 -9.9401818 9.9401818 -1.420026
149 1 -11.3602076 8.5201559 0.0
150 1 -9.9401818 9.9401818 1.420026
151 1 -11.3602076 8.5201559 2.840052
152 1 -9.9401818 9.9401818 4.260078
153 1 -11.3602076 8.5201559 5.6801038
154 1 -9.9401818 9.9401818 7.1001296
155 1 -11.3602076 8.5201559 8.5201559
156 1 -9.9401818 9.9401818 9.9401818
157 1 -11.3602076 8.5201559 11.3602076
158 1 -9.9401818 9.9401818 12.7802334
159 1 -11.3602076 8.5201559 14.2002592
160 1 -9.9401818 9.9401818 15.6202851
161 1 -11.3602076 11.3602076 -11.3602076
162 1 -9.9401818 12.7802334 -9.9401818
163 1 -11.3602076 11.3602076 -8.5201559
164 1 -9.9401818 12.7802334 -7.1001301
165 1 -11.3602076 11.3602076 -5.6801038
166 1 -9.9401818 12.7802334 -4.260078
167 1 -11.3602076 11.3602076 -2.840052
168 1 -9.9401818 12.7802334 -1.420026
169 1 -11.3602076 11.3602076 0.0
170 1 -9.9401818 12.7802334 1.420026
171 1 -11.3602076 11.3602076 2.840052
172 1 -9.9401818 12.7802334 4.260078
173 1 -11.3602076 11.3602076 5.6801038
174 1 -9.9401818 12.7802334 7.1001296
175 1 -11.3602076 11.3602076 8.5201559
176 1 -9.9401818 12.7802334 9.9401818
177 1 -11.3602076 11.3602076 11.3602076
178 1 -9.9401818 12.7802334 12.7802334
179 1 -11.3602076 11.3602076 14.2002592
180 1 -9.9401818 12.7802334 15.6202851
181 1 -11.3602076 14.2002592 -11.3602076
182 1 -9.9401818 15.6202851 -9.9401818
183 1 -11.3602076 14.2002592 -8.5201559
184 1 -9.9401818 15.6202851 -7.1001301
185 1 -11.3602076 14.2002592 -5.6801038
186 1 -9.9401818 15.6202851 -4.260078
187 1 -11.3602076 14.2002592 -2.840052
188 1 -9.9401818 15.6202851 -1.420026
189 1 -11.3602076 14.2002592 0.0
190 1 -9.9401818 15.6202851 1.420026
191 1 -11.3602076 14.2002592 2.840052
192 1 -9.9401818 15.6202851 4.260078
193 1 -11.3602076 14.2002592 5.6801038
194 1 -9.9401818 15.6202851 7.1001296
195 1 -11.3602076 14.2002592 8.5201559
196 1 -9.9401818 15.6202851 9.9401818
197 1 -11.3602076 14.2002592 11.3602076
198 1 -9.9401818 15.6202851 12.7802334
199 1 -11.3602076 14.2002592 14.2002592
200 1 -9.9401818 15.6202851 15.6202851
201 1 -8.5201559 -11.3602076 -11.3602076
202 1 -7.1001301 -9.9401818 -9.9401818
203 1 -8.5201559 -11.3602076 -8.5201559
204 1 -7.1001301 -9.9401818 -7.1001301
205 1 -8.5201559 -11.3602076 -5.6801038
206 1 -7.1001301 -9.9401818 -4.260078
207 1 -8.5201559 -11.3602076 -2.840052
208 1 -7.1001301 -9.9401818 -1.420026
209 1 -8.5201559 -11.3602076 0.0
210 1 -7.1001301 -9.9401818 1.420026
211 1 -8.5201559 -11.3602076 2.840052
212 1 -7.1001301 -9.9401818 4.260078
213 1 -8.5201559 -11.3602076 5.6801038
214 1 -7.1001301 -9.9401818 7.1001296
215 1 -8.5201559 -11.3602076 8.5201559
216 1 -7.1001301 -9.9401818 9.9401818
217 1 -8.5201559 -11.3602076 11.3602076
218 1 -7.1001301 -9.9401818 12.7802334
219 1 -8.5201559 -11.3602076 14.2002592
220 1 -7.1001301 -9.9401818 15.6202851
221 1 -8.5201559 -8.5201559 -11.3602076
222 1 -7.1001301 -7.1001301 -9.9401818
223 1 -8.5201559 -8.5201559 -8.5201559
224 1 -7.1001301 -7.1001301 -7.1001301
225 1 -8.5201559 -8.5201559 -5.6801038
226 1 -7.1001301 -7.1001301 -4.260078
227 1 -8.5201559 -8.5201559 -2.840052
228 1 -7.1001301 -7.1001301 -1.420026
229 1 -8.5201559 -8.5201559 0.0
230 1 -7.1001301 -7.1001301 1.420026
231 1 -8.5201559 -8.5201559 2.840052
232 1 -7.1001301 -7.1001301 4.260078
233 1 -8.5201559 -8.5201559 5.6801038
234 1 -7.1001301 -7.1001301 7.1001296
235 1 -8.5201559 -8.5201559 8.5201559
236 1 -7.1001301 -7.1001301 9.9401818
237 1 -8.5201559 -8.5201559 11.3602076
238 1 -7.1001301 -7.1001301 12.7802334
239 1 -8.5201559 -8.5201559 14.2002592
240 1 -7.1001301 -7.1001301 15.6202851
241 1 -8.5201559 -5.6801038 -11.3602076
242 1 -7.1001301 -4.260078 -9.9401818
243 1 -8.5201559 -5.6801038 -8.5201559
244 1 -7.1001301 -4.260078 -7.1001301
245 1 -8.5201559 -5.6801038 -5.6801038
246 1 -7.1001301 -4.260078 -4.260078
247 1 -8.5201559 -5.6801038 -2.840052
248 1 -7.1001301 -4.260078 -1.420026
249 1 -8.5201559 -5.6801038 0.0
250 1 -7.1001301 -4.260078 1.420026
251 1 -8.5201559 -5.6801038 2.840052
252 1 -7.1001301 -4.260078 4.260078
253 1 -8.5201559 -5.6801038 5.6801038
254 1 -7.1001301 -4.260078 7.1001296
255 1 -8.5201559 -5.6801038 8.5201559
256 1 -7.1001301 -4.260078 9.9401818
257 1 -8.5201559 -5.6801038 11.3602076
258 1 -7.1001301 -4.260078 12.7802334
259 1 -8.5201559 -5.6801038 14.2002592
260 1 -7.1001301 -4.260078 15.6202851
261 1 -8.5201559 -2.840052 -11.3602076
262 1 -7.1001301 -1.420026 -9.9401818
263 1 -8.5201559 -2.840052 -8.5201559
264 1 -7.1001301 -1.420026 -7.1001301
265 1 -8.5201559 -2.840052 -5.6801038
266 1 -7.1001301 -1.420026 -4.260078
267 1 -8.5201559 -2.840052 -2.840052
268 1 -7.1001301 -1.420026 -1.420026
269 1 -8.5201559 -2.840052 0.0
270 1 -7.1001301 -1.420026 1.420026
271 1 -8.5201559 -2.840052 2.840052
272 1 -7.1001301 -1.420026 4.260078
273 1 -8.5201559 -2.840052 5.6801038
274 1 -7.1001301 -1.420026 7.1001296
275 1 -8.5201559 -2.840052 8.5201559
276 1 -7.1001301 -1.420026 9.9401818
277 1 -8.5201559 -2.840052 11.3602076
278 1 -7.1001301 -1.420026 12.7802334
279 1 -8.5201559 -2.840052 14.2002592
280 1 -7.1001301 -1.420026 15.6202851
281 1 -8.5201559 0.0 -11.3602076
282 1 -7.1001301 1.420026 -9.9401818
283 1 -8.5201559 0.0 -8.5201559
284 1 -7.1001301 1.420026 -7.1001301
285 1 -8.5201559 0.0 -5.6801038
286 1 -7.1001301 1.420026 -4.260078
287 1 -8.5201559 0.0 -2.840052
288 1 -7.1001301 1.420026 -1.420026
289 1 -8.5201559 0.0 0.0
290 1 -7.1001301 1.420026 1.420026
291 1 -8.5201559 0.0 2.840052
292 1 -7.1001301 1.420026 4.260078
293 1 -8.5201559 0.0 5.6801038
294 1 -7.1001301 1.420026 7.1001296
295 1 -8.5201559 0.0 8.5201559
296 1 -7.1001301 1.420026 9.9401818
297 1 -8.5201559 0.0 11.3602076
298 1 -7.1001301 1.420026 12.7802334
299 1 -8.5201559 0.0 14.2002592
300 1 -7.1001301 1.420026 15.6202851
301 1 -8.5201559 2.840052 -11.3602076
302 1 -7.1001301 4.260078 -9.9401818
303 1 -8.5201559 2.840052 -8.5201559
304 1 -7.1001301 4.260078 -7.1001301
305 1 -8.5201559 2.840052 -5.6801038
306 1 -7.1001301 4.260078 -4.260078
307 1 -8.5201559 2.840052 -2.840052
308 1 -7.1001301 4.260078 -1.420026
309 1 -8.5201559 2.840052 0.0
310 1 -7.1001301 4.260078 1.420026
311 1 -8.5201559 2.840052 2.840052
312 1 -7.1001301 4.260078 4.260078
313 1 -8.5201559 2.840052 5.6801038
314 1 -7.1001301 4.260078 7.1001296
315 1 -8.5201559 2.840052 8.5201559
316 1 -7.1001301 4.260078 9.9401818
317 1 -8.5201559 2.840052 11.3602076
318 1 -7.1001301 4.260078 12.7802334
319 1 -8.5201559 2.840052 14.2002592
320 1 -7.1001301 4.260078 15.6202851
321 1 -8.5201559 5.6801038 -11.3602076
322 1 -7.1001301 7.1001296 -9.9401818
323 1 -8.5201559 5.6801038 -8.5201559
324 1 -7.1001301 7.1001296 -7.1001301
325 1 -8.5201559 5.6801038 -5.6801038
326 1 -7.1001301 7.1001296 -4.260078
327 1 -8.5201559 5.6801038 -2.840052
328 1 -7.1001301 7.1001296 -1.420026
329 1 -8.5201559 5.6801038 0.0
330 1 -7.1001301 7.1001296 1.420026
331 1 -8.5201559 5.6801038 2.840052
332 1 -7.1001301 7.1001296 4.260078
333 1 -8.5201559 5.6801038 5.6801038
334 1 -7.1001301 7.1001296 7.1001296
335 1 -8.5201559 5.6801038 8.5201559
336 1 -7.1001301 7.1001296 9.9401818
337 1 -8.5201559 5.6801038 11.3602076
338 1 -7.1001301 7.1001296 12.7802334
339 1 -8.5201559 5.6801038 14.2002592
340 1 -7.1001301 7.1001296 15.6202851
341 1 -8.5201559 8.5201559 -11.3602076
342 1 -7.1001301 9.9401818 -9.9401818
343 1 -8.5201559 8.5201559 -8.5201559
344 1 -7.1001301 9.9401818 -7.1001301
345 1 -8.5201559 8.5201559 -5.6801038
346 1 -7.1001301 9.9401818 -4.260078
347 1 -8.5201559 8.5201559 -2.840052
348 1 -7.1001301 9.9401818 -1.420026
349 1 -8.5201559 8.5201559 0.0
350 1 -7.1001301 9.9401818 1.420026
351 1 -8.5201559 8.5201559 2.840052
352 1 -7.1001301 9.9401818 4.260078
353 1 -8.5201559 8.5201559 5.6801038
354 1 -7.1001301 9.9401818 7.1001296
355 1 -8.5201559 8.5201559 8.5201559
356 1 -7.1001301 9.9401818 9.9401818
357 1 -8.5201559 8.5201559 11.3602076
358 1 -7.1001301 9.9401818 12.7802334
359 1 -8.5201559 8.5201559 14.2002592
360 1 -7.1001301 9.9401818 15.6202851
361 1 -8.5201559 11.3602076 -11.3602076
362 1 -7.1001301 12.7802334 -9.9401818
363 1 -8.5201559 11.3602076 -8.5201559
364 1 -7.1001301 12.7802334 -7.1001301
365 1 -8.5201559 11.3602076 -5.6801038
366 1 -7.1001301 12.7802334 -4.260078
367 1 -8.5201559 11.3602076 -2.840052
368 1 -7.1001301 12.7802334 -1.420026
369 1 -8.5201559 11.3602076 0.0
370 1 -7.1001301 12.7802334 1.420026
371 1 -8.5201559 11.3602076 2.840052
372 1 -7.1001301 12.7802334 4.260078
373 1 -8.5201559 11.3602076 5.6801038
374 1 -7.1001301 12.7802334 7.1001296
375 1 -8.5201559 11.3602076 8.5201559
376 1 -7.1001301 12.7802334 9.9401818
377 1 -8.5201559 11.3602076 11.3602076
378 1 -7.1001301 12.7802334 12.7802334
379 1 -8.5201559 11.3602076 14.2002592
380 1 -7.1001301 12.7802334 15.6202851
381 1 -8.5201559 14.2002592 -11.3602076
382 1 -7.1001301 15.6202851 -9.9401818
383 1 -8.5201559 14.2002592 -8.5201559
384 1 -7.1001301 15.6202851 -7.1001301
385 1 -8.5201559 14.2002592 -5.6801038
386 1 -7.1001301 15.6202851 -4.260078
387 1 -8.5201559 14.2002592 -2.840052
388 1 -7.1001301 15.6202851 -1.420026
389 1 -8.5201559 14.2002592 0.0
390 1 -7.1001301 15.6202851 1.420026
391 1 -8.5201559 14.2002592 2.840052
392 1 -7.1001301 15.6202851 4.260078
393 1 -8.5201559 14.2002592 5.6801038
394 1 -7.1001301 15.6202851 7.1001296
395 1 -8.5201559 14.2002592 8.5201559
396 1 -7.1001301 15.6202851 9.9401818
397 1 -8.5201559 14.2002592 11.3602076
398 1 -7.1001301 15.6202851 12.7802334
399 1 -8.5201559 14.2002592 14.2002592
400 1 -7.1001301 15.6202851 15.6202851
401 1 -5.6801038 -11.3602076 -11.3602076
402 1 -4.260078 -9.9401818 -9.9401818
403 1 -5.6801038 -11.3602076 -8.5201559
404 1 -4.260078 -9.9401818 -7.1001301
405 1 -5.6801038 -11.3602076 -5.6801038
406 1 -4.260078 -9.9401818 -4.260078
407 1 -5.6801038 -11.3602076 -2.840052
408 1 -4.260078 -9.9401818 -1.420026
409 1 -5.6801038 -11.3602076 0.0
410 1 -4.260078 -9.9401818 1.420026
411 1 -5.6801038 -11.3602076 2.840052
412 1 -4.260078 -9.9401818 4.260078
413 1 -5.6801038 -11.3602076 5.6801038
414 1 -4.260078 -9.9401818 7.1001296
415 1 -5.6801038 -11.3602076 8.5201559
416 1 -4.260078 -9.9401818 9.9401818
417 1 -5.6801038 -11.3602076 11.3602076
418 1 -4.260078 -9.9401818 12.7802334
419 1 -5.6801038 -11.3602076 14.2002592
420 1 -4.260078 -9.9401818 15.6202851
421 1 -5.6801038 -8.5201559 -11.3602076
422 1 -4.260078 -7.1001301 -9.9401818
423 1 -5.6801038 -8.5201559 -8.5201559
424 1 -4.260078 -7.1001301 -7.1001301
425 1 -5.6801038 -8.5201559 -5.6801038
426 1 -4.260078 -7.1001301 -4.260078
427 1 -5.6801038 -8.5201559 -2.840052
428 1 -4.260078 -7.1001301 -1.420026
429 1 -5.6801038 -8.5201559 0.0
430 1 -4.260078 -7.1001301 1.420026
431 1 -5.6801038 -8.5201559 2.840052
432 1 -4.260078 -7.1001301 4.260078
433 1 -5.6801038 -8.5201559 5.6801038
434 1 -4.260078 -7.1001301 7.1001296
435 1 -5.6801038 -8.5201559 8.5201559
436 1 -4.260078 -7.1001301 9.9401818
437 1 -5.6801038 -8.5201559 11.3602076
438 1 -4.260078 -7.1001301 12.7802334
439 1 -5.6801038 -8.5201559 14.2002592
440 1 -4.260078 -7.1001301 15.6202851
441 1 -5.6801038 -5.6801038 -11.3602076
442 1 -4.260078 -4.260078 -9.9401818
443 1 -5.6801038 -5.6801038 -8.5201559
444 1 -4.260078 -4.260078 -7.1001301
445 1 -5.6801038 -5.6801038 -5.6801038
446 1 -4.260078 -4.260078 -4.260078
447 1 -5.6801038 -5.6801038 -2.840052
448 1 -4.260078 -4.260078 -1.420026
449 1 -5.6801038 -5.6801038 0.0
450 1 -4.260078 -4.260078 1.420026
451 1 -5.6801038 -5.6801038 2.840052
452 1 -4.260078 -4.260078 4.260078
453 1 -5.6801038 -5.6801038 5.6801038
454 1 -4.260078 -4.260078 7.1001296
455 1 -5.6801038 -5.6801038 8.5201559
456 1 -4.260078 -4.260078 9.9401818
457 1 -5.6801038 -5.6801038 11.3602076
458 1 -4.260078 -4.260078 12.7802334
459 1 -5.6801038 -5.6801038 14.2002592
460 1 -4.260078 -4.260078 15.6202851
461 1 -5.6801038 -2.840052 -11.3602076
462 1 -4.260078 -1.420026 -9.9401818
463 1 -5.6801038 -2.840052 -8.5201559
464 1 -4.260078 -1.420026 -7.1001301
465 1 -5.6801038 -2.840052 -5.6801038
466 1 -4.260078 -1.420026 -4.260078
467 1 -5.6801038 -2.840052 -2.840052
468 1 -4.260078 -1.420026 -1.420026
469 1 -5.6801038 -2.840052 0.0
470 1 -4.260078 -1.420026 1.420026
471 1 -5.6801038 -2.840052 2.840052
472 1 -4.260078 -1.420026 4.260078
473 1 -5.6801038 -2.840052 5.6801038
474 1 -4.260078 -1.420026 7.1001296
475 1 -5.6801038 -2.840052 8.5201559
476 1 -4.260078 -1.420026 9.9401818
477 1 -5.6801038 -2.840052 11.3602076
478 1 -4.260078 -1.420026 12.7802334
479 1 -5.6801038 -2.840052 14.2002592
480 1 -4.260078 -1.420026 15.6202851
481 1 -5.6801038 0.0 -11.3602076
482 1 -4.260078 1.420026 -9.9401818
483 1 -5.6801038 0.0 -8.5201559
484 1 -4.260078 1.420026 -7.1001301
485 1 -5.6801038 0.0 -5.6801038
486 1 -4.260078 1.420026 -4.260078
487 1 -5.6801038 0.0 -2.840052
488 1 -4.260078 1.420026 -1.420026
489 1 -5.6801038 0.0 0.0
490 1 -4.260078 1.420026 1.420026
491 1 -5.6801038 0.0 2.840052
492 1 -4.260078 1.420026 4.260078
493 1 -5.6801038 0.0 5.6801038
494 1 -4.260078 1.420026 7.1001296
495 1 -5.6801038 0.0 8.5201559
496 1 -4.260078 1.420026 9.9401818
497 1 -5.6801038 0.0 11.3602076
498 1 -4.260078 1.420026 12.7802334
499 1 -5.6801038 0.0 14.2002592
500 1 -4.260078 1.420026 15.6202851
501 1 -5.6801038 2.840052 -11.3602076
502 1 -4.260078 4.260078 -9.9401818
503 1 -5.6801038 2.840052 -8.5201559
504 1 -4.260078 4.260078 -7.1001301
505 1 -5.6801038 2.840052 -5.6801038
506 1 -4.260078 4.260078 -4.260078
507 1 -5.6801038 2.840052 -2.840052
508 1 -4.260078 4.260078 -1.420026
509 1 -5.6801038 2.840052 0.0
510 1 -4.260078 4.260078 1.420026
511 1 -5.6801038 2.840052 2.840052
512 1 -4.260078 4.260078 4.260078
513 1 -5.6801038 2.840052 5.6801038
514 1 -4.260078 4.260078 7.1001296
515 1 -5.6801038 2.840052 8.5201559
516 1 -4.260078 4.260078 9.9401818
517 1 -5.6801038 2.840052 11.3602076
518 1 -4.260078 4.260078 12.7802334
519 1 -5.6801038 2.840052 14.2002592
520 1 -4.260078 4.260078 15.6202851
521 1 -5.6801038 5.6801038 -11.3602076
522 1 -4.260078 7.1001296 -9.9401818
523 1 -5.6801038 5.6801038 -8.5201559
524 1 -4.260078 7.1001296 -7.1001301
525 1 -5.6801038 5.6801038 -5.6801038
526 1 -4.260078 7.1001296 -4.260078
527 1 -5.6801038 5.6801038 -2.840052
528 1 -4.260078 7.1001296 -1.420026
529 1 -5.6801038 5.6801038 0.0
530 1 -4.260078 7.1001296 1.420026
531 1 -5.6801038 5.6801038 2.840052
532 1 -4.260078 7.1001296 4.260078
533 1 -5.6801038 5.6801038 5.6801038
534 1 -4.260078 7.1001296 7.1001296
535 1 -5.6801038 5.6801038 8.5201559
536 1 -4.260078 7.1001296 9.9401818
537 1 -5.6801038 5.6801038 11.3602076
538 1 -4.260078 7.1001296 12.7802334
539 1 -5.6801038 5.6801038 14.2002592
540 1 -4.260078 7.1001296 15.6202851
541 1 -5.6801038 8.5201559 -11.3602076
542 1 -4.260078 9.9401818 -9.9401818
543 1 -5.6801038 8.5201559 -8.5201559
544 1 -4.260078 9.9401818 -7.1001301
545 1 -5.6801038 8.5201559 -5.6801038
546 1 -4.260078 9.9401818 -4.260078
547 1 -5.6801038 8.5201559 -2.840052
548 1 -4.260078 9.9401818 -1.420026
549 1 -5.6801038 8.5201559 0.0
550 1 -4.260078 9.9401818 1.420026
551 1 -5.6801038 8.5201559 2.840052
552 1 -4.260078 9.9401818 4.260078
553 1 -5.6801038 8.5201559 5.6801038
554 1 -4.260078 9.9401818 7.1001296
555 1 -5.6801038 8.5201559 8.5201559
556 1 -4.260078 9.9401818 9.9401818
557 1 -5.6801038 8.5201559 11.3602076
558 1 -4.260078 9.9401818 12.7802334
559 1 -5.6801038 8.5201559 14.2002592
560 1 -4.260078 9.9401818 15.6202851
561 1 -5.6801038 11.3602076 -11.3602076
562 1 -4.260078 12.7802334 -9.9401818
563 1 -5.6801038 11.3602076 -8.5201559
564 1 -4.260078 12.7802334 -7.1001301
565 1 -5.6801038 11.3602076 -5.6801038
566 1 -4.260078 12.7802334 -4.260078
567 1 -5.6801038 11.3602076 -2.840052
568 1 -4.260078 12.7802334 -1.420026
569 1 -5.6801038 11.3602076 0.0
570 1 -4.260078 12.7802334 1.420026
571 1 -5.6801038 11.3602076 2.840052
572 1 -4.260078 12.7802334 4.260078
573 1 -5.6801038 11.3602076 5.6801038
574 1 -4.260078 12.7802334 7.1001296
575 1 -5.6801038 11.3602076 8.5201559
576 1 -4.260078 12.7802334 9.9401818
577 1 -5.6801038 11.3602076 11.3602076
578 1 -4.260078 12.7802334 12.7802334
579 1 -5.6801038 11.3602076 14.2002592
580 1 -4.260078 12.7802334 15.6202851
581 1 -5.6801038 14.2002592 -11.3602076
582 1 -4.260078 15.6202851 -9.9401818
583 1 -5.6801038 14.2002592 -8.5201559
584 1 -4.260078 15.6202851 -7.1001301
585 1 -5.6801038 14.2002592 -5.6801038
586 1 -4.260078 15.6202851 -4.260078
587 1 -5.6801038 14.2002592 -2.840052
588 1 -4.260078 15.6202851 -1.420026
589 1 -5.6801038 14.2002592 0.0
590 1 -4.260078 15.6202851 1.420026
591 1 -5.6801038 14.2002592 2.840052
592 1 -4.260078 15.6202851 4.260078
593 1 -5.6801038 14.2002592 5.6801038
594 1 -4.260078 15.6202851 7.1001296
595 1 -5.6801038 14.2002592 8.5201559
596 1 -4.260078 15.6202851 9.9401818
597 1 -5.6801038 14.2002592 11.3602076
598 1 -4.260078 15.6202851 12.7802334
599 1 -5.6801038 14.2002592 14.2002592
600 1 -4.260078 15.6202851 15.6202851
601 1 -2.840052 -11.3602076 -11.3602076
602 1 -1.420026 -9.9401818 -9.9401818
603 1 -2.840052 -11.3602076 -8.5201559
604 1 -1.420026 -9.9401818 -7.1001301
605 1 -2.840052 -11.3602076 -5.6801038
606 1 -1.420026 -9.9401818 -4.260078
607 1 -2.840052 -11.3602076 -2.840052
608 1 -1.420026 -9.9401818 -1.420026
609 1 -2.840052 -11.3602076 0.0
610 1 -1.420026 -9.9401818 1.420026
611 1 -2.840052 -11.3602076 2.840052
612 1 -1.420026 -9.9401818 4.260078
613 1 -2.840052 -11.3602076 5.6801038
614 1 -1.420026 -9.9401818 7.1001296
615 1 -2.840052 -11.3602076 8.5201559
616 1 -1.420026 -9.9401818 9.9401818
617 1 -2.840052 -11.3602076 11.3602076
618 1 -1.420026 -9.9401818 12.7802334
619 1 -2.840052 -11.3602076 14.2002592
620 1 -1.420026 -9.9401818 15.6202851
621 1 -2.840052 -8.5201559 -11.3602076
622 1 -1.420026 -7.1001301 -9.9401818
623 1 -2.840052 -8.5201559 -8.5201559
624 1 -1.420026 -7.1001301 -7.1001301
625 1 -2.840052 -8.5201559 -5.6801038
626 1 -1.420026 -7.1001301 -4.260078
627 1 -2.840052 -8.5201559 -2.840052
628 1 -1.420026 -7.1001301 -1.420026
629 1 -2.840052 -8.5201559 0.0
630 1 -1.420026 -7.1001301 1.420026
631 1 -2.840052 -8.5201559 2.840052
632 1 -1.420026 -7.1001301 4.260078
633 1 -2.840052 -8.5201559 5.6801038
634 1 -1.420026 -7.1001301 7.1001296
635 1 -2.840052 -8.5201559 8.5201559
636 1 -1.420026 -7.1001301 9.9401818
637 1 -2.840052 -8.5201559 11.3602076
638 1 -1.420026 -7.1001301 12.7802334
639 1 -2.840052 -8.5201559 14.2002592
640 1 -1.420026 -7.1001301 15.6202851
641 1 -2.840052 -5.6801038 -11.3602076
642 1 -1.420026 -4.260078 -9.9401818
643 1 -2.840052 -5.6801038 -8.5201559
644 1 -1.420026 -4.260078 -7.1001301
645 1 -2.840052 -5.6801038 -5.6801038
646 1 -1.420026 -4.260078 -4.260078
647 1 -2.840052 -5.6801038 -2.840052
648 1 -1.420026 -4.260078 -1.420026
649 1 -2.840052 -5.6801038 0.0
650 1 -1.420026 -4.260078 1.420026
651 1 -2.840052 -5.6801038 2.840052
652 1 -1.420026 -4.260078 4.260078
653 1 -2.840052 -5.6801038 5.6801038
654 1 -1.420026 -4.260078 7.1001296
655 1 -2.840052 -5.6801038 8.5201559
656 1 -1.420026 -4.260078 9.9401818
657 1 -2.840052 -5.6801038 11.3602076
658 1 -1.420026 -4.260078 12.7802334
659 1 -2.840052 -5.6801038 14.2002592
660 1 -1.420026 -4.260078 15.6202851
661 1 -2.840052 -2.840052 -11.3602076
662 1 -1.420026 -1.420026 -9.9401818
663 1 -2.840052 -2.840052 -8.5201559
664 1 -1.420026 -1.420026 -7.1001301
665 1 -2.840052 -2.840052 -5.6801038
666 1 -1.420026 -1.420026 -4.260078
667 1 -2.840052 -2.840052 -2.840052
668 1 -1.420026 -1.420026 -1.420026
669 1 -2.840052 -2.840052 0.0
670 1 -1.420026 -1.420026 1.420026
671 1 -2.840052 -2.840052 2.840052
672 1 -1.420026 -1.420026 4.260078
673 1 -2.840052 -2.840052 5.6801038
674 1 -1.420026 -1.420026 7.1001296
675 1 -2.840052 -2.840052 8.5201559
676 1 -1.420026 -1.420026 9.9401818
677 1 -2.840052 -2.840052 11.3602076
678 1 -1.420026 -1.420026 12.7802334
679 1 -2.840052 -2.840052 14.2002592
680 1 -1.420026 -1.420026 15.6202851
681 1 -2.840052 0.0 -11.3602076
682 1 -1.420026 1.420026 -9.9401818
683 1 -2.840052 0.0 -8.5201559
684 1 -1.420026 1.420026 -7.1001301
685 1 -2.840052 0.0 -5.6801038
686 1 -1.420026 1.420026 -4.260078
687 1 -2.840052 0.0 -2.840052
688 1 -1.420026 1.420026 -1.420026
689 1 -2.840052 0.0 0.0
690 1 -1.420026 1.420026 1.420026
691 1 -2.840052 0.0 2.840052
692 1 -1.420026 1.420026 4.260078
693 1 -2.840052 0.0 5.6801038
694 1 -1.420026 1.420026 7.1001296
695 1 -2.840052 0.0 8.5201559
696 1 -1.420026 1.420026 9.9401818
697 1 -2.840052 0.0 11.3602076
698 1 -1.420026 1.420026 12.7802334
699 1 -2.840052 0.0 14.2002592
700 1 -1.420026 1.420026 15.6202851
701 1 -2.840052 2.840052 -11.3602076
702 1 -1.420026 4.260078 -9.9401818
703 1 -2.840052 2.840052 -8.5201559
704 1 -1.420026 4.260078 -7.1001301
705 1 -2.840052 2.840052 -5.6801038
706 1 -1.420026 4.260078 -4.260078
707 1 -2.840052 2.840052 -2.840052
708 1 -1.420026 4.260078 -1.420026
709 1 -2.840052 2.840052 0.0
710 1 -1.420026 4.260078 1.420026
711 1 -2.840052 2.840052 2.840052
712 1 -1.420026 4.260078 4.260078
713 1 -2.840052 2.840052 5.6801038
714 1 -1.420026 4.260078 7.1001296
715 1 -2.840052 2.840052 8.5201559
716 1 -1.420026 4.260078 9.9401818
717 1 -2.840052 2.840052 11.3602076
718 1 -1.420026 4.260078 12.7802334
719 1 -2.840052 2.840052 14.2002592
720 1 -1.420026 4.260078 15.6202851
721 1 -2.840052 5.6801038 -11.3602076
722 1 -1.420026 7.1001296 -9.9401818
723 1 -2.840052 5.6801038 -8.5201559
724 1 -1.420026 7.1001296 -7.1001301
725 1 -2.840052 5.6801038 -5.6801038
726 1 -1.420026 7.1001296 -4.260078
727 1 -2.840052 5.6801038 -2.840052
728 1 -1.420026 7.1001296 -1.420026
729 1 -2.840052 5.6801038 0.0
730 1 -1.420026 7.1001296 1.420026
731 1 -2.840052 5.6801038 2.840052
732 1 -1.420026 7.1001296 4.260078
733 1 -2.840052 5.6801038 5.6801038
734 1 -1.420026 7.1001296 7.1001296
735 1 -2.840052 5.6801038 8.5201559
736 1 -1.420026 7.1001296 9.9401818
737 1 -2.840052 5.6801038 11.3602076
738 1 -1.420026 7.1001296 12.7802334
739 1 -2.840052 5.6801038 14.2002592
740 1 -1.420026 7.1001296 15.6202851
741 1 -2.840052 8.5201559 -11.3602076
742 1 -1.420026 9.9401818 -9.9401818
743 1 -2.840052 8.5201559 -8.5201559
744 1 -1.420026 9.9401818 -7.1001301
745 1 -2.840052 8.5201559 -5.6801038
746 1 -1.420026 9.9401818 -4.260078
747 1 -2.840052 8.5201559 -2.840052
748 1 -1.420026 9.9401818 -1.420026
749 1 -2.840052 8.5201559 0.0
750 1 -1.420026 9.9401818 1.420026
751 1 -2.840052 8.5201559 2.840052
752 1 -1.420026 9.9401818 4.260078
753 1 -2.840052 8.5201559 5.6801038
754 1 -1.420026 9.9401818 7.1001296
755 1 -2.840052 8.5201559 8.5201559
756 1 -1.420026 9.9401818 9.9401818
757 1 -2.840052 8.5201559 11.3602076
758 1 -1.420026 9.9401818 12.7802334
759 1 -2.840052 8.5201559 14.2002592
760 1 -1.420026 9.9401818 15.6202851
761 1 -2.840052 11.3602076 -11.3602076
762 1 -1.420026 12.7802334 -9.9401818
763 1 -2.840052 11.3602076 -8.5201559
764 1 -1.420026 12.7802334 -7.1001301
765 1 -2.840052 11.3602076 -5.6801038
766 1 -1.420026 12.7802334 -4.260078
767 1 -2.840052 11.3602076 -2.840052
768 1 -1.420026 12.7802334 -1.420026
769 1 -2.840052 11.3602076 0.0
770 1 -1.420026 12.7802334 1.420026
771 1 -2.840052 11.3602076 2.840052
772 1 -1.420026 12.7802334 4.260078
773 1 -2.840052 11.3602076 5.6801038
774 1 -1.420026 12.7802334 7.1001296
775 1 -2.840052 11.3602076 8.5201559
776 1 -1.420026 12.7802334 9.9401818
777 1 -2.840052 11.3602076 11.3602076
778 1 -1.420026 12.7802334 12.7802334
779 1 -2.840052 11.3602076 14.2002592
780 1 -1.420026 12.7802334 15.6202851
781 1 -2.840052 14.2002592 -11.3602076
782 1 -1.420026 15.6202851 -9.9401818
783 1 -2.840052 14.2002592 -8.5201559
784 1 -1.420026 15.6202851 -7.1001301
785 1 -2.840052 14.2002592 -5.6801038
786 1 -1.420026 15.6202851 -4.260078
787 1 -2.840052 14.2002592 -2.840052
788 1 -1.420026 15.6202851 -1.420026
789 1 -2.840052 14.2002592 0.0
790 1 -1.420026 15.6202851 1.420026
791 1 -2.840052 14.2002592 2.840052
792 1 -1.420026 15.6202851 4.260078
793 1 -2.840052 14.2002592 5.6801038
794 1 -1.420026 15.6202851 7.1001296
795 1 -2.840052 14.2002592 8.5201559
796 1 -1.420026 15.6202851 9.9401818
797 1 -2.840052 14.2002592 11.3602076
798 1 -1.420026 15.6202851 12.7802334
799 1 -2.840052 14.2002592 14.2002592
800 1 -1.420026 15.6202851 15.6202851
801 1 0.0 -11.3602076 -11.3602076
802 1 1.420026 -9.9401818 -9.9401818
803 1 0.0 -11.3602076 -8.5201559
804 1 1.420026 -9.9401818 -7.1001301
805 1 0.0 -11.3602076 -5.6801038
806 1 1.420026 -9.9401818 -4.260078
807 1 0.0 -11.3602076 -2.840052
808 1 1.420026 -9.9401818 -1.420026
809 1 0.0 -11.3602076 0.0
810 1 1.420026 -9.9401818 1.420026
811 1 0.0 -11.3602076 2.840052
812 1 1.420026 -9.9401818 4.260078
813 1 0.0 -11.3602076 5.6801038