# LAMMPS data file written by OVITO
1080 atoms
2 atom types
-4.8864312 9.7728634 xlo xhi
-8.3968382 16.7936745 ylo yhi
-9.0248003 18.0496025 zlo zhi

Atoms # atomic

1 1 -1.5825539 -7.1169167 -7.1578579
2 1 -0.8606616 -2.9184976 -2.6454578
3 1 -1.5470393 -1.3443756 -8.8802052
4 1 -0.8961764 -5.5427947 -4.3678045
5 1 -3.339392 -7.0524626 -4.3678045
6 1 -4.04424 -8.1368723 -8.9692888
7 1 -1.536602 -7.1046906 -1.8527284
8 1 -3.9798174 -5.4905663 -1.8527284
9 1 -3.3498294 -1.2921476 -6.3651285
10 1 -0.8421912 -0.2599659 -4.4568882
11 1 -1.6010244 -4.4583855 -8.9692888
12 1 -4.0257692 -5.4783411 -7.1578579
13 1 -3.3038774 -1.2799215 -2.6454578
14 1 -0.9066136 -2.9062716 -6.3651285
15 1 -3.2854066 -3.9384528 -4.4568882
16 1 -3.990255 -2.8540436 -8.8802052
17 2 -0.111176 -4.10005 -7.7457605
18 2 -3.2097893 -1.3514629 -0.8506594
19 2 -4.7849598 -1.4782129 -7.8076163
20 2 -2.5288844 -2.7822171 -3.1810074
21 2 -0.7665735 -2.8469564 -0.8506594
22 2 -3.2129359 -6.9807368 -1.0817847
23 2 -0.1014719 -6.9186254 -3.2952161
24 2 -4.1198578 -5.549882 -5.36306
25 2 -0.085669 -1.4162021 -3.1810074
26 2 -2.341744 -2.7202063 -7.8076163
27 2 -2.3320396 -8.2984696 -3.2333603
28 2 -1.6766422 -7.0453753 -5.36306
29 2 -1.6720832 -4.1871677 -5.3033791
30 2 -2.3575468 -5.6146212 -7.6934076
31 2 -4.8007622 -6.9806356 -7.6934076
32 2 -4.7752552 -4.2967882 -3.2333603
33 2 -4.1152988 -0.0112514 -5.3033791
34 2 -4.1167107 -2.7823177 -5.5941849
35 2 -2.5446873 -5.676632 -3.2952161
36 2 -1.6734951 -1.4161015 -5.5941849
37 2 -2.5543916 -0.0983686 -7.7457605
38 2 -0.7711325 -8.3855868 -0.7909785
39 2 -3.2143481 -4.209671 -0.7909785
40 2 -0.7697206 -5.6145206 -1.0817847
41 1 -1.5825539 -7.1169167 1.8669424
42 1 -0.8606616 -2.9184976 6.3793426
43 1 -1.5470393 -1.3443756 0.1445954
44 1 -0.8961764 -5.5427947 4.6569958
45 1 -3.339392 -7.0524626 4.6569958
46 1 -4.04424 -8.1368723 0.0555115
47 1 -1.536602 -7.1046906 7.1720719
48 1 -3.9798174 -5.4905663 7.1720719
49 1 -3.3498294 -1.2921476 2.6596718
50 1 -0.8421912 -0.2599659 4.5679121
51 1 -1.6010244 -4.4583855 0.0555115
52 1 -4.0257692 -5.4783411 1.8669424
53 1 -3.3038774 -1.2799215 6.3793426
54 1 -0.9066136 -2.9062716 2.6596718
55 1 -3.2854066 -3.9384528 4.5679121
56 1 -3.990255 -2.8540436 0.1445954
57 2 -0.111176 -4.10005 1.2790399
58 2 -3.2097893 -1.3514629 8.1741409
59 2 -4.7849598 -1.4782129 1.217184
60 2 -2.5288844 -2.7822171 5.843793
61 2 -0.7665735 -2.8469564 8.1741409
62 2 -3.2129359 -6.9807368 7.9430156
63 2 -0.1014719 -6.9186254 5.7295842
64 2 -4.1198578 -5.549882 3.6617406
65 2 -0.085669 -1.4162021 5.843793
66 2 -2.341744 -2.7202063 1.217184
67 2 -2.3320396 -8.2984696 5.79144
68 2 -1.6766422 -7.0453753 3.6617406
69 2 -1.6720832 -4.1871677 3.7214215
70 2 -2.3575468 -5.6146212 1.3313927
71 2 -4.8007622 -6.9806356 1.3313927
72 2 -4.7752552 -4.2967882 5.79144
73 2 -4.1152988 -0.0112514 3.7214215
74 2 -4.1167107 -2.7823177 3.4306152
75 2 -2.5446873 -5.676632 5.7295842
76 2 -1.6734951 -1.4161015 3.4306152
77 2 -2.5543916 -0.0983686 1.2790399
78 2 -0.7711325 -8.3855868 8.2338219
79 2 -3.2143481 -4.209671 8.2338219
80 2 -0.7697206 -5.6145206 7.9430156
81 1 -1.5825539 -7.1169167 10.8917428
82 1 -0.8606616 -2.9184976 15.4041424
83 1 -1.5470393 -1.3443756 9.1693955
84 1 -0.8961764 -5.5427947 13.6817961
85 1 -3.339392 -7.0524626 13.6817961
86 1 -4.04424 -8.1368723 9.0803118
87 1 -1.536602 -7.1046906 16.1968727
88 1 -3.9798174 -5.4905663 16.1968727
89 1 -3.3498294 -1.2921476 11.6844721
90 1 -0.8421912 -0.2599659 13.5927124
91 1 -1.6010244 -4.4583855 9.0803118
92 1 -4.0257692 -5.4783411 10.8917428
93 1 -3.3038774 -1.2799215 15.4041424
94 1 -0.9066136 -2.9062716 11.6844721
95 1 -3.2854066 -3.9384528 13.5927124
96 1 -3.990255 -2.8540436 9.1693955
97 2 -0.111176 -4.10005 10.3038406
98 2 -3.2097893 -1.3514629 17.1989403
99 2 -4.7849598 -1.4782129 10.2419844
100 2 -2.5288844 -2.7822171 14.8685932
101 2 -0.7665735 -2.8469564 17.1989403
102 2 -3.2129359 -6.9807368 16.9678154
103 2 -0.1014719 -6.9186254 14.754385
104 2 -4.1198578 -5.549882 12.6865406
105 2 -0.085669 -1.4162021 14.8685932
106 2 -2.341744 -2.7202063 10.2419844
107 2 -2.3320396 -8.2984696 14.8162403
108 2 -1.6766422 -7.0453753 12.6865406
109 2 -1.6720832 -4.1871677 12.7462216
110 2 -2.3575468 -5.6146212 10.3561926
111 2 -4.8007622 -6.9806356 10.3561926
112 2 -4.7752552 -4.2967882 14.8162403
113 2 -4.1152988 -0.0112514 12.7462216
114 2 -4.1167107 -2.7823177 12.4554158
115 2 -2.5446873 -5.676632 14.754385
116 2 -1.6734951 -1.4161015 12.4554158
117 2 -2.5543916 -0.0983686 10.3038406
118 2 -0.7711325 -8.3855868 17.2586212
119 2 -3.2143481 -4.209671 17.2586212
120 2 -0.7697206 -5.6145206 16.9678154
121 1 -1.5825539 1.2799217 -7.1578579
122 1 -0.8606616 5.4783407 -2.6454578
123 1 -1.5470393 7.0524626 -8.8802052
124 1 -0.8961764 2.8540436 -4.3678045
125 1 -3.339392 1.3443759 -4.3678045
126 1 -4.04424 0.2599661 -8.9692888
127 1 -1.536602 1.2921475 -1.8527284
128 1 -3.9798174 2.9062718 -1.8527284
129 1 -3.3498294 7.1046906 -6.3651285
130 1 -0.8421912 8.1368723 -4.4568882
131 1 -1.6010244 3.938453 -8.9692888
132 1 -4.0257692 2.9184974 -7.1578579
133 1 -3.3038774 7.1169167 -2.6454578
134 1 -0.9066136 5.4905668 -6.3651285
135 1 -3.2854066 4.4583855 -4.4568882
136 1 -3.990255 5.5427947 -8.8802052
137 2 -0.111176 4.2967882 -7.7457605
138 2 -3.2097893 7.0453753 -0.8506594
139 2 -4.7849598 6.9186254 -7.8076163
140 2 -2.5288844 5.6146212 -3.1810074
141 2 -0.7665735 5.549882 -0.8506594
142 2 -3.2129359 1.4161016 -1.0817847
143 2 -0.1014719 1.478213 -3.2952161
144 2 -4.1198578 2.8469566 -5.36306
145 2 -0.085669 6.9806362 -3.1810074
146 2 -2.341744 5.676632 -7.8076163
147 2 -2.3320396 0.098369 -3.2333603
148 2 -1.6766422 1.3514627 -5.36306
149 2 -1.6720832 4.2096705 -5.3033791
150 2 -2.3575468 2.7822168 -7.6934076
151 2 -4.8007622 1.4162023 -7.6934076
152 2 -4.7752552 4.10005 -3.2333603
153 2 -4.1152988 8.3855868 -5.3033791
154 2 -4.1167107 5.6145206 -5.5941849
155 2 -2.5446873 2.7202063 -3.2952161
156 2 -1.6734951 6.9807368 -5.5941849
157 2 -2.5543916 8.2984696 -7.7457605
158 2 -0.7711325 0.0112518 -0.7909785
159 2 -3.2143481 4.1871672 -0.7909785
160 2 -0.7697206 2.7823177 -1.0817847
161 1 -1.5825539 1.2799217 1.8669424
162 1 -0.8606616 5.4783407 6.3793426
163 1 -1.5470393 7.0524626 0.1445954
164 1 -0.8961764 2.8540436 4.6569958
165 1 -3.339392 1.3443759 4.6569958
166 1 -4.04424 0.2599661 0.0555115
167 1 -1.536602 1.2921475 7.1720719
168 1 -3.9798174 2.9062718 7.1720719
169 1 -3.3498294 7.1046906 2.6596718
170 1 -0.8421912 8.1368723 4.5679121
171 1 -1.6010244 3.938453 0.0555115
172 1 -4.0257692 2.9184974 1.8669424
173 1 -3.3038774 7.1169167 6.3793426
174 1 -0.9066136 5.4905668 2.6596718
175 1 -3.2854066 4.4583855 4.5679121
176 1 -3.990255 5.5427947 0.1445954
177 2 -0.111176 4.2967882 1.2790399
178 2 -3.2097893 7.0453753 8.1741409
179 2 -4.7849598 6.9186254 1.217184
180 2 -2.5288844 5.6146212 5.843793
181 2 -0.7665735 5.549882 8.1741409
182 2 -3.2129359 1.4161016 7.9430156
183 2 -0.1014719 1.478213 5.7295842
184 2 -4.1198578 2.8469566 3.6617406
185 2 -0.085669 6.9806362 5.843793
186 2 -2.341744 5.676632 1.217184
187 2 -2.3320396 0.098369 5.79144
188 2 -1.6766422 1.3514627 3.6617406
189 2 -1.6720832 4.2096705 3.7214215
190 2 -2.3575468 2.7822168 1.3313927
191 2 -4.8007622 1.4162023 1.3313927
192 2 -4.7752552 4.10005 5.79144
193 2 -4.1152988 8.3855868 3.7214215
194 2 -4.1167107 5.6145206 3.4306152
195 2 -2.5446873 2.7202063 5.7295842
196 2 -1.6734951 6.9807368 3.4306152
197 2 -2.5543916 8.2984696 1.2790399
198 2 -0.7711325 0.0112518 8.2338219
199 2 -3.2143481 4.1871672 8.2338219
200 2 -0.7697206 2.7823177 7.9430156
201 1 -1.5825539 1.2799217 10.8917428
202 1 -0.8606616 5.4783407 15.4041424
203 1 -1.5470393 7.0524626 9.1693955
204 1 -0.8961764 2.8540436 13.6817961
205 1 -3.339392 1.3443759 13.6817961
206 1 -4.04424 0.2599661 9.0803118
207 1 -1.536602 1.2921475 16.1968727
208 1 -3.9798174 2.9062718 16.1968727
209 1 -3.3498294 7.1046906 11.6844721
210 1 -0.8421912 8.1368723 13.5927124
211 1 -1.6010244 3.938453 9.0803118
212 1 -4.0257692 2.9184974 10.8917428
213 1 -3.3038774 7.1169167 15.4041424
214 1 -0.9066136 5.4905668 11.6844721
215 1 -3.2854066 4.4583855 13.5927124
216 1 -3.990255 5.5427947 9.1693955
217 2 -0.111176 4.2967882 10.3038406
218 2 -3.2097893 7.0453753 17.1989403
219 2 -4.7849598 6.9186254 10.2419844
220 2 -2.5288844 5.6146212 14.8685932
221 2 -0.7665735 5.549882 17.1989403
222 2 -3.2129359 1.4161016 16.9678154
223 2 -0.1014719 1.478213 14.754385
224 2 -4.1198578 2.8469566 12.6865406
225 2 -0.085669 6.9806362 14.8685932
226 2 -2.341744 5.676632 10.2419844
227 2 -2.3320396 0.098369 14.8162403
228 2 -1.6766422 1.3514627 12.6865406
229 2 -1.6720832 4.2096705 12.7462216
230 2 -2.3575468 2.7822168 10.3561926
231 2 -4.8007622 1.4162023 10.3561926
232 2 -4.7752552 4.10005 14.8162403
233 2 -4.1152988 8.3855868 12.7462216
234 2 -4.1167107 5.6145206 12.4554158
235 2 -2.5446873 2.7202063 14.754385
236 2 -1.6734951 6.9807368 12.4554158
237 2 -2.5543916 8.2984696 10.3038406
238 2 -0.7711325 0.0112518 17.2586212
239 2 -3.2143481 4.1871672 17.2586212
240 2 -0.7697206 2.7823177 16.9678154
241 1 -1.5825539 9.6767597 -7.1578579
242 1 -0.8606616 13.8751794 -2.6454578
243 1 -1.5470393 15.4493008 -8.8802052
244 1 -0.8961764 11.2508812 -4.3678045
245 1 -3.339392 9.7412138 -4.3678045
246 1 -4.04424 8.6568041 -8.9692888
247 1 -1.536602 9.6889858 -1.8527284
248 1 -3.9798174 11.3031101 -1.8527284
249 1 -3.3498294 15.5015288 -6.3651285
250 1 -0.8421912 16.5337105 -4.4568882
251 1 -1.6010244 12.3352909 -8.9692888
252 1 -4.0257692 11.3153353 -7.1578579
253 1 -3.3038774 15.5137549 -2.6454578
254 1 -0.9066136 13.8874054 -6.3651285
255 1 -3.2854066 12.8552238 -4.4568882
256 1 -3.990255 13.9396324 -8.8802052
257 2 -0.111176 12.6936264 -7.7457605
258 2 -3.2097893 15.4422131 -0.8506594
259 2 -4.7849598 15.315464 -7.8076163
260 2 -2.5288844 14.0114594 -3.1810074
261 2 -0.7665735 13.9467202 -0.8506594
262 2 -3.2129359 9.8129397 -1.0817847
263 2 -0.1014719 9.8750516 -3.2952161
264 2 -4.1198578 11.2437945 -5.36306
265 2 -0.085669 15.3774738 -3.1810074
266 2 -2.341744 14.0734701 -7.8076163
267 2 -2.3320396 8.4952069 -3.2333603
268 2 -1.6766422 9.7483006 -5.36306
269 2 -1.6720832 12.6065083 -5.3033791
270 2 -2.3575468 11.1790552 -7.6934076
271 2 -4.8007622 9.8130408 -7.6934076
272 2 -4.7752552 12.4968882 -3.2333603
273 2 -4.1152988 16.782425 -5.3033791
274 2 -4.1167107 14.0113583 -5.5941849
275 2 -2.5446873 11.1170445 -3.2952161
276 2 -1.6734951 15.3775749 -5.5941849
277 2 -2.5543916 16.6953087 -7.7457605
278 2 -0.7711325 8.4080897 -0.7909785
279 2 -3.2143481 12.5840054 -0.7909785
280 2 -0.7697206 11.1791554 -1.0817847
281 1 -1.5825539 9.6767597 1.8669424
282 1 -0.8606616 13.8751794 6.3793426
283 1 -1.5470393 15.4493008 0.1445954
284 1 -0.8961764 11.2508812 4.6569958
285 1 -3.339392 9.7412138 4.6569958
286 1 -4.04424 8.6568041 0.0555115
287 1 -1.536602 9.6889858 7.1720719
288 1 -3.9798174 11.3031101 7.1720719
289 1 -3.3498294 15.5015288 2.6596718
290 1 -0.8421912 16.5337105 4.5679121
291 1 -1.6010244 12.3352909 0.0555115
292 1 -4.0257692 11.3153353 1.8669424
293 1 -3.3038774 15.5137549 6.3793426
294 1 -0.9066136 13.8874054 2.6596718
295 1 -3.2854066 12.8552238 4.5679121
296 1 -3.990255 13.9396324 0.1445954
297 2 -0.111176 12.6936264 1.2790399
298 2 -3.2097893 15.4422131 8.1741409
299 2 -4.7849598 15.315464 1.217184
300 2 -2.5288844 14.0114594 5.843793
301 2 -0.7665735 13.9467202 8.1741409
302 2 -3.2129359 9.8129397 7.9430156
303 2 -0.1014719 9.8750516 5.7295842
304 2 -4.1198578 11.2437945 3.6617406
305 2 -0.085669 15.3774738 5.843793
306 2 -2.341744 14.0734701 1.217184
307 2 -2.3320396 8.4952069 5.79144
308 2 -1.6766422 9.7483006 3.6617406
309 2 -1.6720832 12.6065083 3.7214215
310 2 -2.3575468 11.1790552 1.3313927
311 2 -4.8007622 9.8130408 1.3313927
312 2 -4.7752552 12.4968882 5.79144
313 2 -4.1152988 16.782425 3.7214215
314 2 -4.1167107 14.0113583 3.4306152
315 2 -2.5446873 11.1170445 5.7295842
316 2 -1.6734951 15.3775749 3.4306152
317 2 -2.5543916 16.6953087 1.2790399
318 2 -0.7711325 8.4080897 8.2338219
319 2 -3.2143481 12.5840054 8.2338219
320 2 -0.7697206 11.1791554 7.9430156
321 1 -1.5825539 9.6767597 10.8917428
322 1 -0.8606616 13.8751794 15.4041424
323 1 -1.5470393 15.4493008 9.1693955
324 1 -0.8961764 11.2508812 13.6817961
325 1 -3.339392 9.7412138 13.6817961
326 1 -4.04424 8.6568041 9.0803118
327 1 -1.536602 9.6889858 16.1968727
328 1 -3.9798174 11.3031101 16.1968727
329 1 -3.3498294 15.5015288 11.6844721
330 1 -0.8421912 16.5337105 13.5927124
331 1 -1.6010244 12.3352909 9.0803118
332 1 -4.0257692 11.3153353 10.8917428
333 1 -3.3038774 15.5137549 15.4041424
334 1 -0.9066136 13.8874054 11.6844721
335 1 -3.2854066 12.8552238 13.5927124
336 1 -3.990255 13.9396324 9.1693955
337 2 -0.111176 12.6936264 10.3038406
338 2 -3.2097893 15.4422131 17.1989403
339 2 -4.7849598 15.315464 10.2419844
340 2 -2.5288844 14.0114594 14.8685932
341 2 -0.7665735 13.9467202 17.1989403
342 2 -3.2129359 9.8129397 16.9678154
343 2 -0.1014719 9.8750516 14.754385
344 2 -4.1198578 11.2437945 12.6865406
345 2 -0.085669 15.3774738 14.8685932
346 2 -2.341744 14.0734701 10.2419844
347 2 -2.3320396 8.4952069 14.8162403
348 2 -1.6766422 9.7483006 12.6865406
349 2 -1.6720832 12.6065083 12.7462216
350 2 -2.3575468 11.1790552 10.3561926
351 2 -4.8007622 9.8130408 10.3561926
352 2 -4.7752552 12.4968882 14.8162403
353 2 -4.1152988 16.782425 12.7462216
354 2 -4.1167107 14.0113583 12.4554158
355 2 -2.5446873 11.1170445 14.754385
356 2 -1.6734951 15.3775749 12.4554158
357 2 -2.5543916 16.6953087 10.3038406
358 2 -0.7711325 8.4080897 17.2586212
359 2 -3.2143481 12.5840054 17.2586212
360 2 -0.7697206 11.1791554 16.9678154
361 1 3.3038774 -7.1169167 -7.1578579
362 1 4.0257697 -2.9184976 -2.6454578
363 1 3.339392 -1.3443756 -8.8802052
364 1 3.990255 -5.5427947 -4.3678045
365 1 1.5470393 -7.0524626 -4.3678045
366 1 0.8421912 -8.1368723 -8.9692888
367 1 3.3498292 -7.1046906 -1.8527284
368 1 0.9066138 -5.4905663 -1.8527284
369 1 1.5366018 -1.2921476 -6.3651285
370 1 4.04424 -0.2599659 -4.4568882
371 1 3.2854068 -4.4583855 -8.9692888
372 1 0.8606618 -5.4783411 -7.1578579
373 1 1.5825538 -1.2799215 -2.6454578
374 1 3.9798176 -2.9062716 -6.3651285
375 1 1.6010245 -3.9384528 -4.4568882
376 1 0.8961764 -2.8540436 -8.8802052
377 2 4.7752552 -4.10005 -7.7457605
378 2 1.6766421 -1.3514629 -0.8506594
379 2 0.1014716 -1.4782129 -7.8076163
380 2 2.3575468 -2.7822171 -3.1810074
381 2 4.1198578 -2.8469564 -0.8506594
382 2 1.6734952 -6.9807368 -1.0817847
383 2 4.7849593 -6.9186254 -3.2952161
384 2 0.7665736 -5.549882 -5.36306
385 2 4.8007622 -1.4162021 -3.1810074
386 2 2.5446873 -2.7202063 -7.8076163
387 2 2.5543916 -8.2984696 -3.2333603
388 2 3.2097891 -7.0453753 -5.36306
389 2 3.2143481 -4.1871677 -5.3033791
390 2 2.5288844 -5.6146212 -7.6934076
391 2 0.0856689 -6.9806356 -7.6934076
392 2 0.1111761 -4.2967882 -3.2333603
393 2 0.7711326 -0.0112514 -5.3033791
394 2 0.7697204 -2.7823177 -5.5941849
395 2 2.341744 -5.676632 -3.2952161
396 2 3.2129362 -1.4161015 -5.5941849
397 2 2.3320396 -0.0983686 -7.7457605
398 2 4.1152988 -8.3855868 -0.7909785
399 2 1.6720832 -4.209671 -0.7909785
400 2 4.1167107 -5.6145206 -1.0817847
401 1 3.3038774 -7.1169167 1.8669424
402 1 4.0257697 -2.9184976 6.3793426
403 1 3.339392 -1.3443756 0.1445954
404 1 3.990255 -5.5427947 4.6569958
405 1 1.5470393 -7.0524626 4.6569958
406 1 0.8421912 -8.1368723 0.0555115
407 1 3.3498292 -7.1046906 7.1720719
408 1 0.9066138 -5.4905663 7.1720719
409 1 1.5366018 -1.2921476 2.6596718
410 1 4.04424 -0.2599659 4.5679121
411 1 3.2854068 -4.4583855 0.0555115
412 1 0.8606618 -5.4783411 1.8669424
413 1 1.5825538 -1.2799215 6.3793426
414 1 3.9798176 -2.9062716 2.6596718
415 1 1.6010245 -3.9384528 4.5679121
416 1 0.8961764 -2.8540436 0.1445954
417 2 4.7752552 -4.10005 1.2790399
418 2 1.6766421 -1.3514629 8.1741409
419 2 0.1014716 -1.4782129 1.217184
420 2 2.3575468 -2.7822171 5.843793
421 2 4.1198578 -2.8469564 8.1741409
422 2 1.6734952 -6.9807368 7.9430156
423 2 4.7849593 -6.9186254 5.7295842
424 2 0.7665736 -5.549882 3.6617406
425 2 4.8007622 -1.4162021 5.843793
426 2 2.5446873 -2.7202063 1.217184
427 2 2.5543916 -8.2984696 5.79144
428 2 3.2097891 -7.0453753 3.6617406
429 2 3.2143481 -4.1871677 3.7214215
430 2 2.5288844 -5.6146212 1.3313927
431 2 0.0856689 -6.9806356 1.3313927
432 2 0.1111761 -4.2967882 5.79144
433 2 0.7711326 -0.0112514 3.7214215
434 2 0.7697204 -2.7823177 3.4306152
435 2 2.341744 -5.676632 5.7295842
436 2 3.2129362 -1.4161015 3.4306152
437 2 2.3320396 -0.0983686 1.2790399
438 2 4.1152988 -8.3855868 8.2338219
439 2 1.6720832 -4.209671 8.2338219
440 2 4.1167107 -5.6145206 7.9430156
441 1 3.3038774 -7.1169167 10.8917428
442 1 4.0257697 -2.9184976 15.4041424
443 1 3.339392 -1.3443756 9.1693955
444 1 3.990255 -5.5427947 13.6817961
445 1 1.5470393 -7.0524626 13.6817961
446 1 0.8421912 -8.1368723 9.0803118
447 1 3.3498292 -7.1046906 16.1968727
448 1 0.9066138 -5.4905663 16.1968727
449 1 1.5366018 -1.2921476 11.6844721
450 1 4.04424 -0.2599659 13.5927124
451 1 3.2854068 -4.4583855 9.0803118
452 1 0.8606618 -5.4783411 10.8917428
453 1 1.5825538 -1.2799215 15.4041424
454 1 3.9798176 -2.9062716 11.6844721
455 1 1.6010245 -3.9384528 13.5927124
456 1 0.8961764 -2.8540436 9.1693955
457 2 4.7752552 -4.10005 10.3038406
458 2 1.6766421 -1.3514629 17.1989403
459 2 0.1014716 -1.4782129 10.2419844
460 2 2.3575468 -2.7822171 14.8685932
461 2 4.1198578 -2.8469564 17.1989403
462 2 1.6734952 -6.9807368 16.9678154
463 2 4.7849593 -6.9186254 14.754385
464 2 0.7665736 -5.549882 12.6865406
465 2 4.8007622 -1.4162021 14.8685932
466 2 2.5446873 -2.7202063 10.2419844
467 2 2.5543916 -8.2984696 14.8162403
468 2 3.2097891 -7.0453753 12.6865406
469 2 3.2143481 -4.1871677 12.7462216
470 2 2.5288844 -5.6146212 10.3561926
471 2 0.0856689 -6.9806356 10.3561926
472 2 0.1111761 -4.2967882 14.8162403
473 2 0.7711326 -0.0112514 12.7462216
474 2 0.7697204 -2.7823177 12.4554158
475 2 2.341744 -5.676632 14.754385
476 2 3.2129362 -1.4161015 12.4554158
477 2 2.3320396 -0.0983686 10.3038406
478 2 4.1152988 -8.3855868 17.2586212
479 2 1.6720832 -4.209671 17.2586212
480 2 4.1167107 -5.6145206 16.9678154
481 1 3.3038774 1.2799217 -7.1578579
482 1 4.0257697 5.4783407 -2.6454578
483 1 3.339392 7.0524626 -8.8802052
484 1 3.990255 2.8540436 -4.3678045
485 1 1.5470393 1.3443759 -4.3678045
486 1 0.8421912 0.2599661 -8.9692888
487 1 3.3498292 1.2921475 -1.8527284
488 1 0.9066138 2.9062718 -1.8527284
489 1 1.5366018 7.1046906 -6.3651285
490 1 4.04424 8.1368723 -4.4568882
491 1 3.2854068 3.938453 -8.9692888
492 1 0.8606618 2.9184974 -7.1578579
493 1 1.5825538 7.1169167 -2.6454578
494 1 3.9798176 5.4905668 -6.3651285
495 1 1.6010245 4.4583855 -4.4568882
496 1 0.8961764 5.5427947 -8.8802052
497 2 4.7752552 4.2967882 -7.7457605
498 2 1.6766421 7.0453753 -0.8506594
499 2 0.1014716 6.9186254 -7.8076163
500 2 2.3575468 5.6146212 -3.1810074
501 2 4.1198578 5.549882 -0.8506594
502 2 1.6734952 1.4161016 -1.0817847
503 2 4.7849593 1.478213 -3.2952161
504 2 0.7665736 2.8469566 -5.36306
505 2 4.8007622 6.9806362 -3.1810074
506 2 2.5446873 5.676632 -7.8076163
507 2 2.5543916 0.098369 -3.2333603
508 2 3.2097891 1.3514627 -5.36306
509 2 3.2143481 4.2096705 -5.3033791
510 2 2.5288844 2.7822168 -7.6934076
511 2 0.0856689 1.4162023 -7.6934076
512 2 0.1111761 4.10005 -3.2333603
513 2 0.7711326 8.3855868 -5.3033791
514 2 0.7697204 5.6145206 -5.5941849
515 2 2.341744 2.7202063 -3.2952161
516 2 3.2129362 6.9807368 -5.5941849
517 2 2.3320396 8.2984696 -7.7457605
518 2 4.1152988 0.0112518 -0.7909785
519 2 1.6720832 4.1871672 -0.7909785
520 2 4.1167107 2.7823177 -1.0817847
521 1 3.3038774 1.2799217 1.8669424
522 1 4.0257697 5.4783407 6.3793426
523 1 3.339392 7.0524626 0.1445954
524 1 3.990255 2.8540436 4.6569958
525 1 1.5470393 1.3443759 4.6569958
526 1 0.8421912 0.2599661 0.0555115
527 1 3.3498292 1.2921475 7.1720719
528 1 0.9066138 2.9062718 7.1720719
529 1 1.5366018 7.1046906 2.6596718
530 1 4.04424 8.1368723 4.5679121
531 1 3.2854068 3.938453 0.0555115
532 1 0.8606618 2.9184974 1.8669424
533 1 1.5825538 7.1169167 6.3793426
534 1 3.9798176 5.4905668 2.6596718
535 1 1.6010245 4.4583855 4.5679121
536 1 0.8961764 5.5427947 0.1445954
537 2 4.7752552 4.2967882 1.2790399
538 2 1.6766421 7.0453753 8.1741409
539 2 0.1014716 6.9186254 1.217184
540 2 2.3575468 5.6146212 5.843793
541 2 4.1198578 5.549882 8.1741409
542 2 1.6734952 1.4161016 7.9430156
543 2 4.7849593 1.478213 5.7295842
544 2 0.7665736 2.8469566 3.6617406
545 2 4.8007622 6.9806362 5.843793
546 2 2.5446873 5.676632 1.217184
547 2 2.5543916 0.098369 5.79144
548 2 3.2097891 1.3514627 3.6617406
549 2 3.2143481 4.2096705 3.7214215
550 2 2.5288844 2.7822168 1.3313927
551 2 0.0856689 1.4162023 1.3313927
552 2 0.1111761 4.10005 5.79144
553 2 0.7711326 8.3855868 3.7214215
554 2 0.7697204 5.6145206 3.4306152
555 2 2.341744 2.7202063 5.7295842
556 2 3.2129362 6.9807368 3.4306152
557 2 2.3320396 8.2984696 1.2790399
558 2 4.1152988 0.0112518 8.2338219
559 2 1.6720832 4.1871672 8.2338219
560 2 4.1167107 2.7823177 7.9430156
561 1 3.3038774 1.2799217 10.8917428
562 1 4.0257697 5.4783407 15.4041424
563 1 3.339392 7.0524626 9.1693955
564 1 3.990255 2.8540436 13.6817961
565 1 1.5470393 1.3443759 13.6817961
566 1 0.8421912 0.2599661 9.0803118
567 1 3.3498292 1.2921475 16.1968727
568 1 0.9066138 2.9062718 16.1968727
569 1 1.5366018 7.1046906 11.6844721
570 1 4.04424 8.1368723 13.5927124
571 1 3.2854068 3.938453 9.0803118
572 1 0.8606618 2.9184974 10.8917428
573 1 1.5825538 7.1169167 15.4041424
574 1 3.9798176 5.4905668 11.6844721
575 1 1.6010245 4.4583855 13.5927124
576 1 0.8961764 5.5427947 9.1693955
577 2 4.7752552 4.2967882 10.3038406
578 2 1.6766421 7.0453753 17.1989403
579 2 0.1014716 6.9186254 10.2419844
580 2 2.3575468 5.6146212 14.8685932
581 2 4.1198578 5.549882 17.1989403
582 2 1.6734952 1.4161016 16.9678154
583 2 4.7849593 1.478213 14.754385
584 2 0.7665736 2.8469566 12.6865406
585 2 4.8007622 6.9806362 14.8685932
586 2 2.5446873 5.676632 10.2419844
587 2 2.5543916 0.098369 14.8162403
588 2 3.2097891 1.3514627 12.6865406
589 2 3.2143481 4.2096705 12.7462216
590 2 2.5288844 2.7822168 10.3561926
591 2 0.0856689 1.4162023 10.3561926
592 2 0.1111761 4.10005 14.8162403
593 2 0.7711326 8.3855868 12.7462216
594 2 0.7697204 5.6145206 12.4554158
595 2 2.341744 2.7202063 14.754385
596 2 3.2129362 6.9807368 12.4554158
597 2 2.3320396 8.2984696 10.3038406
598 2 4.1152988 0.0112518 17.2586212
599 2 1.6720832 4.1871672 17.2586212
600 2 4.1167107 2.7823177 16.9678154
601 1 3.3038774 9.6767597 -7.1578579
602 1 4.0257697 13.8751794 -2.6454578
603 1 3.339392 15.4493008 -8.8802052
604 1 3.990255 11.2508812 -4.3678045
605 1 1.5470393 9.7412138 -4.3678045
606 1 0.8421912 8.6568041 -8.9692888
607 1 3.3498292 9.6889858 -1.8527284
608 1 0.9066138 11.3031101 -1.8527284
609 1 1.5366018 15.5015288 -6.3651285
610 1 4.04424 16.5337105 -4.4568882
611 1 3.2854068 12.3352909 -8.9692888
612 1 0.8606618 11.3153353 -7.1578579
613 1 1.5825538 15.5137549 -2.6454578
614 1 3.9798176 13.8874054 -6.3651285
615 1 1.6010245 12.8552238 -4.4568882
616 1 0.8961764 13.9396324 -8.8802052
617 2 4.7752552 12.6936264 -7.7457605
618 2 1.6766421 15.4422131 -0.8506594
619 2 0.1014716 15.315464 -7.8076163
620 2 2.3575468 14.0114594 -3.1810074
621 2 4.1198578 13.9467202 -0.8506594
622 2 1.6734952 9.8129397 -1.0817847
623 2 4.7849593 9.8750516 -3.2952161
624 2 0.7665736 11.2437945 -5.36306
625 2 4.8007622 15.3774738 -3.1810074
626 2 2.5446873 14.0734701 -7.8076163
627 2 2.5543916 8.4952069 -3.2333603
628 2 3.2097891 9.7483006 -5.36306
629 2 3.2143481 12.6065083 -5.3033791
630 2 2.5288844 11.1790552 -7.6934076
631 2 0.0856689 9.8130408 -7.6934076
632 2 0.1111761 12.4968882 -3.2333603
633 2 0.7711326 16.782425 -5.3033791
634 2 0.7697204 14.0113583 -5.5941849
635 2 2.341744 11.1170445 -3.2952161
636 2 3.2129362 15.3775749 -5.5941849
637 2 2.3320396 16.6953087 -7.7457605
638 2 4.1152988 8.4080897 -0.7909785
639 2 1.6720832 12.5840054 -0.7909785
640 2 4.1167107 11.1791554 -1.0817847
641 1 3.3038774 9.6767597 1.8669424
642 1 4.0257697 13.8751794 6.3793426
643 1 3.339392 15.4493008 0.1445954
644 1 3.990255 11.2508812 4.6569958
645 1 1.5470393 9.7412138 4.6569958
646 1 0.8421912 8.6568041 0.0555115
647 1 3.3498292 9.6889858 7.1720719
648 1 0.9066138 11.3031101 7.1720719
649 1 1.5366018 15.5015288 2.6596718
650 1 4.04424 16.5337105 4.5679121
651 1 3.2854068 12.3352909 0.0555115
652 1 0.8606618 11.3153353 1.8669424
653 1 1.5825538 15.5137549 6.3793426
654 1 3.9798176 13.8874054 2.6596718
655 1 1.6010245 12.8552238 4.5679121
656 1 0.8961764 13.9396324 0.1445954
657 2 4.7752552 12.6936264 1.2790399
658 2 1.6766421 15.4422131 8.1741409
659 2 0.1014716 15.315464 1.217184
660 2 2.3575468 14.0114594 5.843793
661 2 4.1198578 13.9467202 8.1741409
662 2 1.6734952 9.8129397 7.9430156
663 2 4.7849593 9.8750516 5.7295842
664 2 0.7665736 11.2437945 3.6617406
665 2 4.8007622 15.3774738 5.843793
666 2 2.5446873 14.0734701 1.217184
667 2 2.5543916 8.4952069 5.79144
668 2 3.2097891 9.7483006 3.6617406
669 2 3.2143481 12.6065083 3.7214215
670 2 2.5288844 11.1790552 1.3313927
671 2 0.0856689 9.8130408 1.3313927
672 2 0.1111761 12.4968882 5.79144
673 2 0.7711326 16.782425 3.7214215
674 2 0.7697204 14.0113583 3.4306152
675 2 2.341744 11.1170445 5.7295842
676 2 3.2129362 15.3775749 3.4306152
677 2 2.3320396 16.6953087 1.2790399
678 2 4.1152988 8.4080897 8.2338219
679 2 1.6720832 12.5840054 8.2338219
680 2 4.1167107 11.1791554 7.9430156
681 1 3.3038774 9.6767597 10.8917428
682 1 4.0257697 13.8751794 15.4041424
683 1 3.339392 15.4493008 9.1693955
684 1 3.990255 11.2508812 13.6817961
685 1 1.5470393 9.7412138 13.6817961
686 1 0.8421912 8.6568041 9.0803118
687 1 3.3498292 9.6889858 16.1968727
688 1 0.9066138 11.3031101 16.1968727
689 1 1.5366018 15.5015288 11.6844721
690 1 4.04424 16.5337105 13.5927124
691 1 3.2854068 12.3352909 9.0803118
692 1 0.8606618 11.3153353 10.8917428
693 1 1.5825538 15.5137549 15.4041424
694 1 3.9798176 13.8874054 11.6844721
695 1 1.6010245 12.8552238 13.5927124
696 1 0.8961764 13.9396324 9.1693955
697 2 4.7752552 12.6936264 10.3038406
698 2 1.6766421 15.4422131 17.1989403
699 2 0.1014716 15.315464 10.2419844
700 2 2.3575468 14.0114594 14.8685932
701 2 4.1198578 13.9467202 17.1989403
702 2 1.6734952 9.8129397 16.9678154
703 2 4.7849593 9.8750516 14.754385
704 2 0.7665736 11.2437945 12.6865406
705 2 4.8007622 15.3774738 14.8685932
706 2 2.5446873 14.0734701 10.2419844
707 2 2.5543916 8.4952069 14.8162403
708 2 3.2097891 9.7483006 12.6865406
709 2 3.2143481 12.6065083 12.7462216
710 2 2.5288844 11.1790552 10.3561926
711 2 0.0856689 9.8130408 10.3561926
712 2 0.1111761 12.4968882 14.8162403
713 2 0.7711326 16.782425 12.7462216
714 2 0.7697204 14.0113583 12.4554158
715 2 2.341744 11.1170445 14.754385
716 2 3.2129362 15.3775749 12.4554158
717 2 2.3320396 16.6953087 10.3038406
718 2 4.1152988 8.4080897 17.2586212
719 2 1.6720832 12.5840054 17.2586212
720 2 4.1167107 11.1791554 16.9678154
721 1 8.1903086 -7.1169167 -7.1578579
722 1 8.912201 -2.9184976 -2.6454578
723 1 8.2258234 -1.3443756 -8.8802052
724 1 8.8766862 -5.5427947 -4.3678045
725 1 6.4334708 -7.0524626 -4.3678045
726 1 5.7286225 -8.1368723 -8.9692888
727 1 8.2362604 -7.1046906 -1.8527284
728 1 5.7930451 -5.4905663 -1.8527284
729 1 6.4230328 -1.2921476 -6.3651285
730 1 8.9306718 -0.2599659 -4.4568882
731 1 8.1718378 -4.4583855 -8.9692888
732 1 5.7470932 -5.4783411 -7.1578579
733 1 6.4689851 -1.2799215 -2.6454578
734 1 8.8662492 -2.9062716 -6.3651285
735 1 6.4874559 -3.9384528 -4.4568882
736 1 5.7826076 -2.8540436 -8.8802052
737 2 9.661686 -4.10005 -7.7457605
738 2 6.5630732 -1.3514629 -0.8506594
739 2 4.9879026 -1.4782129 -7.8076163
740 2 7.243978 -2.7822171 -3.1810074
741 2 9.0062885 -2.8469564 -0.8506594
742 2 6.5599265 -6.9807368 -1.0817847
743 2 9.6713906 -6.9186254 -3.2952161
744 2 5.6530047 -5.549882 -5.36306
745 2 9.6871929 -1.4162021 -3.1810074
746 2 7.4311185 -2.7202063 -7.8076163
747 2 7.4408226 -8.2984696 -3.2333603
748 2 8.09622 -7.0453753 -5.36306
749 2 8.1007795 -4.1871677 -5.3033791
750 2 7.4153156 -5.6146212 -7.6934076
751 2 4.9721004 -6.9806356 -7.6934076
752 2 4.9976072 -4.2967882 -3.2333603
753 2 5.6575637 -0.0112514 -5.3033791
754 2 5.6561518 -2.7823177 -5.5941849
755 2 7.2281752 -5.676632 -3.2952161
756 2 8.0993671 -1.4161015 -5.5941849
757 2 7.2184706 -0.0983686 -7.7457605
758 2 9.00173 -8.3855868 -0.7909785
759 2 6.5585146 -4.209671 -0.7909785
760 2 9.0031414 -5.6145206 -1.0817847
761 1 8.1903086 -7.1169167 1.8669424
762 1 8.912201 -2.9184976 6.3793426
763 1 8.2258234 -1.3443756 0.1445954
764 1 8.8766862 -5.5427947 4.6569958
765 1 6.4334708 -7.0524626 4.6569958
766 1 5.7286225 -8.1368723 0.0555115
767 1 8.2362604 -7.1046906 7.1720719
768 1 5.7930451 -5.4905663 7.1720719
769 1 6.4230328 -1.2921476 2.6596718
770 1 8.9306718 -0.2599659 4.5679121
771 1 8.1718378 -4.4583855 0.0555115
772 1 5.7470932 -5.4783411 1.8669424
773 1 6.4689851 -1.2799215 6.3793426
774 1 8.8662492 -2.9062716 2.6596718
775 1 6.4874559 -3.9384528 4.5679121
776 1 5.7826076 -2.8540436 0.1445954
777 2 9.661686 -4.10005 1.2790399
778 2 6.5630732 -1.3514629 8.1741409
779 2 4.9879026 -1.4782129 1.217184
780 2 7.243978 -2.7822171 5.843793
781 2 9.0062885 -2.8469564 8.1741409
782 2 6.5599265 -6.9807368 7.9430156
783 2 9.6713906 -6.9186254 5.7295842
784 2 5.6530047 -5.549882 3.6617406
785 2 9.6871929 -1.4162021 5.843793
786 2 7.4311185 -2.7202063 1.217184
787 2 7.4408226 -8.2984696 5.79144
788 2 8.09622 -7.0453753 3.6617406
789 2 8.1007795 -4.1871677 3.7214215
790 2 7.4153156 -5.6146212 1.3313927
791 2 4.9721004 -6.9806356 1.3313927
792 2 4.9976072 -4.2967882 5.79144
793 2 5.6575637 -0.0112514 3.7214215
794 2 5.6561518 -2.7823177 3.4306152
795 2 7.2281752 -5.676632 5.7295842
796 2 8.0993671 -1.4161015 3.4306152
797 2 7.2184706 -0.0983686 1.2790399
798 2 9.00173 -8.3855868 8.2338219
799 2 6.5585146 -4.209671 8.2338219
800 2 9.0031414 -5.6145206 7.9430156
801 1 8.1903086 -7.1169167 10.8917428
802 1 8.912201 -2.9184976 15.4041424